000_000_000_002_006
56 atoms
2 atom types

0.000000 7.887740 xlo xhi
0.000000 13.661210 ylo yhi
0.000000 5.713040 zlo zhi

Masses

1 28.085500
2 14.006700

Atoms

1 1 2.347580 10.725550 1.123340
2 1 6.291450 3.894950 1.123090
3 1 1.368700 3.501100 1.123100
4 1 5.312570 10.331710 1.122850
5 1 0.227850 6.266160 1.124300
6 1 4.171720 13.096760 1.124050
7 1 2.347400 2.935650 3.979860
8 1 6.291270 9.766260 3.979610
9 1 1.368520 10.160100 3.979620
10 1 5.312380 3.329500 3.979370
11 1 0.227670 7.395050 3.980820
12 1 4.171540 0.564450 3.980570
13 1 7.570610 1.730890 2.777950
14 1 3.626740 8.561490 2.778200
15 1 1.656870 0.589650 5.635860
16 1 5.600740 7.420250 5.635610
17 1 2.603740 7.969930 5.634910
18 1 6.547610 1.139330 5.634660
19 1 3.626550 5.099720 5.634720
20 1 7.570420 11.930320 5.634470
21 1 1.657050 13.071560 2.779340
22 1 5.600920 6.240950 2.779090
23 1 2.603920 5.691280 2.778390
24 1 6.547790 12.521880 2.778140
25 2 3.943670 6.830280 5.639920
26 2 -0.000200 13.660890 5.640160
27 2 -0.000020 0.000320 2.783650
28 2 3.943850 6.830920 2.783400
29 2 7.887350 9.106530 3.681270
30 2 3.943480 2.275930 3.681510
31 2 7.887530 4.554680 0.824750
32 2 3.943660 11.385280 0.825000
33 2 5.125130 9.497200 2.680980
34 2 1.181260 2.666600 2.681230
35 2 1.716940 11.304740 2.680420
36 2 5.660810 4.474130 2.680180
37 2 1.044270 6.520900 2.681250
38 2 4.988140 13.351500 2.681000
39 2 1.181070 10.994610 5.537750
40 2 5.124940 4.164010 5.537500
41 2 1.716760 2.356470 5.536940
42 2 5.660630 9.187080 5.536690
43 2 1.044090 7.140310 5.537770
44 2 4.987960 0.309700 5.537520
45 2 6.436180 6.784950 1.322250
46 2 2.492310 13.615560 1.322500
47 2 2.737710 9.011690 1.320830
48 2 6.681580 2.181090 1.320580
49 2 2.657390 4.697060 1.321020
50 2 6.601260 11.527670 1.320770
51 2 2.492130 0.045650 4.179020
52 2 6.436000 6.876250 4.178770
53 2 2.737530 4.649510 4.177350
54 2 6.681400 11.480120 4.177100
55 2 2.657210 8.964150 4.177540
56 2 6.601080 2.133540 4.177290
