000_000_000_002_009
56 atoms
2 atom types

0.000000 8.123800 xlo xhi
0.000000 14.072010 ylo yhi
0.000000 5.879350 zlo zhi

Masses

1 28.085500
2 14.006700

Atoms

1 1 2.427300 11.042860 1.173370
2 1 6.489200 4.006860 1.173560
3 1 1.408860 3.617330 1.172620
4 1 5.470750 10.653330 1.172810
5 1 0.225500 6.447260 1.171250
6 1 4.287400 13.483270 1.171440
7 1 2.427440 3.029150 4.113040
8 1 6.489340 10.065160 4.113240
9 1 1.408990 10.454690 4.112290
10 1 5.470890 3.418680 4.112480
11 1 0.225640 7.624760 4.110920
12 1 4.287530 0.588750 4.111110
13 1 7.804630 1.780110 2.845730
14 1 3.742740 8.816120 2.845540
15 1 1.702060 0.613350 5.785600
16 1 5.763960 7.649360 5.785790
17 1 2.681010 8.201800 5.784970
18 1 6.742910 1.165790 5.785160
19 1 3.742880 5.255890 5.785210
20 1 7.804770 12.291900 5.785400
21 1 1.701920 13.458660 2.845930
22 1 5.763820 6.422650 2.846120
23 1 2.680870 5.870220 2.845290
24 1 6.742770 12.906220 2.845480
25 2 4.062810 7.035820 5.782740
26 2 0.000910 14.071830 5.782550
27 2 0.000770 0.000190 2.842870
28 2 4.062670 7.036200 2.843060
29 2 8.123660 9.381800 3.859320
30 2 4.061760 2.345800 3.859130
31 2 8.123520 4.690210 0.919640
32 2 4.061620 11.726220 0.919450
33 2 5.285310 9.789810 2.769150
34 2 1.223410 2.753800 2.768960
35 2 1.771720 11.636680 2.768820
36 2 5.833610 4.600670 2.769010
37 2 1.066450 6.718120 2.767240
38 2 5.128350 13.754120 2.767430
39 2 1.223550 11.318210 5.708640
40 2 5.285450 4.282210 5.708830
41 2 1.771850 2.435340 5.708490
42 2 5.833750 9.471340 5.708690
43 2 1.066590 7.353900 5.706910
44 2 5.128490 0.317890 5.707100
45 2 6.614070 6.951130 1.333540
46 2 2.552170 13.987130 1.333350
47 2 2.858540 9.286580 1.333910
48 2 6.920440 2.250570 1.334100
49 2 2.712730 4.869600 1.332500
50 2 6.774630 11.905610 1.332690
51 2 2.552310 0.084880 4.273020
52 2 6.614200 7.120890 4.273220
53 2 2.858680 4.785430 4.273590
54 2 6.920580 11.821440 4.273780
55 2 2.712870 9.202410 4.272180
56 2 6.774760 2.166410 4.272370
