000_000_000_002_001
56 atoms
2 atom types

0.000000 7.412340 xlo xhi
0.000000 12.839490 ylo yhi
0.000000 5.382850 zlo zhi

Masses

1 28.085500
2 14.006700

Atoms

1 1 2.193630 10.087000 0.998570
2 1 5.899800 3.667260 0.998490
3 1 1.288020 3.275130 0.998030
4 1 4.994190 9.694880 0.997950
5 1 0.225620 5.897120 0.999730
6 1 3.931790 12.316870 0.999640
7 1 2.193570 2.752490 3.690000
8 1 5.899740 9.172230 3.689920
9 1 1.287950 9.564350 3.689460
10 1 4.994120 3.144610 3.689380
11 1 0.225560 6.942360 3.691150
12 1 3.931730 0.522620 3.691070
13 1 7.081950 1.635040 2.664910
14 1 3.375780 8.054790 2.664990
15 1 1.579540 0.530490 5.355730
16 1 5.285710 6.950230 5.355640
17 1 2.454610 7.522770 5.356860
18 1 6.160780 1.103020 5.356780
19 1 3.375720 4.784700 5.356420
20 1 7.081890 11.204440 5.356340
21 1 1.579600 12.309000 2.664300
22 1 5.285770 5.889260 2.664220
23 1 2.454670 5.316720 2.665440
24 1 6.160840 11.736460 2.665350
25 2 3.705340 6.419580 0.028950
26 2 7.411510 12.839330 0.028870
27 2 7.411440 0.000160 2.720300
28 2 3.705270 6.419900 2.720380
29 2 0.000640 8.559760 3.270250
30 2 3.706810 2.140020 3.270160
31 2 0.000700 4.279720 0.578820
32 2 3.706870 10.699470 0.578740
33 2 4.793370 8.903770 2.469320
34 2 1.087200 2.484020 2.469400
35 2 1.611990 10.657120 2.470610
36 2 5.318160 4.237380 2.470530
37 2 1.011020 6.119430 2.470750
38 2 4.717190 12.539180 2.470670
39 2 1.087140 10.355460 5.160830
40 2 4.793310 3.935720 5.160740
41 2 1.611930 2.182360 5.162030
42 2 5.318100 8.602110 5.161950
43 2 1.010960 6.720050 5.162180
44 2 4.717130 0.300310 5.162090
45 2 6.109930 6.518430 1.346700
46 2 2.403760 0.098690 1.346780
47 2 2.415990 8.452580 1.348290
48 2 6.122160 2.032840 1.348210
49 2 2.589360 4.288070 1.348420
50 2 6.295530 10.707810 1.348340
51 2 2.403700 12.740790 4.038210
52 2 6.109870 6.321050 4.038130
53 2 2.415930 4.386900 4.039710
54 2 6.122100 10.806640 4.039630
55 2 2.589300 8.551420 4.039850
56 2 6.295470 2.131680 4.039770
