000_000_000_002_007
56 atoms
2 atom types

0.000000 7.966750 xlo xhi
0.000000 13.796220 ylo yhi
0.000000 5.769040 zlo zhi

Masses

1 28.085500
2 14.006700

Atoms

1 1 2.374380 10.829080 1.139640
2 1 6.357760 3.930970 1.139710
3 1 1.382100 3.538710 1.139020
4 1 5.365470 10.436820 1.139100
5 1 0.225790 6.327000 1.140450
6 1 4.209170 13.225110 1.140530
7 1 2.374440 2.967140 4.024160
8 1 6.357810 9.865250 4.024230
9 1 1.382150 10.257510 4.023540
10 1 5.365530 3.359400 4.023620
11 1 0.225850 7.469220 4.024970
12 1 4.209220 0.571110 4.025050
13 1 7.649960 1.747140 2.801270
14 1 3.666580 8.645250 2.801190
15 1 1.671510 0.597920 5.685280
16 1 5.654880 7.496030 5.685350
17 1 2.629390 8.046040 5.685120
18 1 6.612770 1.147930 5.685200
19 1 3.666640 5.150970 5.685710
20 1 7.650010 12.049080 5.685790
21 1 1.671450 13.198300 2.800750
22 1 5.654830 6.300190 2.800830
23 1 2.629340 5.750180 2.800600
24 1 6.612710 12.648290 2.800680
25 2 3.983580 6.897790 5.690700
26 2 0.000210 13.795900 5.690620
27 2 0.000150 0.000320 2.806100
28 2 3.983530 6.898430 2.806180
29 2 7.966300 9.196420 3.742780
30 2 3.982920 2.298310 3.742710
31 2 7.966240 4.599800 0.858260
32 2 3.982870 11.497910 0.858190
33 2 5.178850 9.595130 2.711110
34 2 1.195480 2.697020 2.711030
35 2 1.735280 11.413520 2.709280
36 2 5.718660 4.515410 2.709360
37 2 1.051280 6.586590 2.711010
38 2 5.034660 13.484700 2.711090
39 2 1.195530 11.099200 5.595550
40 2 5.178910 4.201090 5.595630
41 2 1.735340 2.382700 5.593800
42 2 5.718710 9.280810 5.593880
43 2 1.051340 7.209630 5.595530
44 2 5.034710 0.311520 5.595610
45 2 6.494480 6.843020 1.326640
46 2 2.511110 13.741130 1.326570
47 2 2.781960 9.101970 1.324540
48 2 6.765330 2.203860 1.324610
49 2 2.676380 4.753040 1.324330
50 2 6.659760 11.651150 1.324410
51 2 2.511160 0.055090 4.211090
52 2 6.494540 6.953200 4.211160
53 2 2.782010 4.694250 4.209060
54 2 6.765390 11.592360 4.209140
55 2 2.676440 9.043180 4.208860
56 2 6.659810 2.145070 4.208930
