000_000_000_002_003
56 atoms
2 atom types

0.000000 7.567590 xlo xhi
0.000000 13.110450 ylo yhi
0.000000 5.496480 zlo zhi

Masses

1 28.085500
2 14.006700

Atoms

1 1 2.243380 10.298020 1.049850
2 1 6.027170 3.742800 1.049530
3 1 1.315160 3.348750 1.050050
4 1 5.098960 9.903970 1.049730
5 1 0.225770 6.019490 1.051430
6 1 4.009570 12.574710 1.051110
7 1 2.243140 2.812420 3.798090
8 1 6.026940 9.367650 3.797770
9 1 1.314930 9.761700 3.798290
10 1 5.098720 3.206480 3.797970
11 1 0.225540 7.090960 3.799670
12 1 4.009340 0.535740 3.799350
13 1 7.246470 1.665320 2.699830
14 1 3.462680 8.220540 2.700140
15 1 1.600980 0.554570 5.449320
16 1 5.384770 7.109800 5.449010
17 1 2.501470 7.666640 5.448480
18 1 6.285270 1.111420 5.448160
19 1 3.462440 4.889900 5.448380
20 1 7.246240 11.445130 5.448070
21 1 1.601210 12.555870 2.701080
22 1 5.385010 6.000650 2.700770
23 1 2.501700 5.443810 2.700240
24 1 6.285500 11.999030 2.699920
25 2 3.782020 6.555260 5.461790
26 2 7.565810 0.000030 5.461470
27 2 7.566050 13.110410 2.713230
28 2 3.782250 6.555190 2.713550
29 2 0.000890 8.739880 3.420260
30 2 3.784690 2.184660 3.419940
31 2 0.001130 4.370560 0.672020
32 2 3.784920 10.925790 0.671710
33 2 4.906310 9.101350 2.550440
34 2 1.122510 2.546120 2.550760
35 2 1.645030 10.865740 2.551620
36 2 5.428830 4.310520 2.551300
37 2 1.015320 6.250220 2.554050
38 2 4.799110 12.805450 2.553730
39 2 1.122280 10.564330 5.299000
40 2 4.906080 4.009100 5.298680
41 2 1.644800 2.244710 5.299860
42 2 5.428590 8.799930 5.299540
43 2 1.015090 6.860230 5.302290
44 2 4.798880 0.305000 5.301970
45 2 6.206750 6.592560 1.331190
46 2 2.422950 0.037330 1.331510
47 2 2.540550 8.637440 1.330030
48 2 6.324340 2.082220 1.329710
49 2 2.604690 4.436330 1.329980
50 2 6.388490 10.991550 1.329660
51 2 2.422720 13.073120 4.079750
52 2 6.206520 6.517890 4.079430
53 2 2.540320 4.473010 4.078270
54 2 6.324110 11.028230 4.077950
55 2 2.604460 8.674120 4.078220
56 2 6.388260 2.118900 4.077900
