000_000_000_002_002
56 atoms
2 atom types

0.000000 7.487900 xlo xhi
0.000000 12.973730 ylo yhi
0.000000 5.441680 zlo zhi

Masses

1 28.085500
2 14.006700

Atoms

1 1 2.218940 10.191400 1.028170
2 1 5.962890 3.704540 1.028400
3 1 1.303150 3.308500 1.028160
4 1 5.047110 9.795370 1.028390
5 1 0.225550 5.956440 1.026240
6 1 3.969510 12.443300 1.026470
7 1 2.219100 2.782320 3.749010
8 1 5.963050 9.269190 3.749240
9 1 1.303320 9.665220 3.749000
10 1 5.047270 3.178360 3.749230
11 1 0.225720 7.017290 3.747080
12 1 3.969670 0.530430 3.747310
13 1 7.163070 1.649600 2.685690
14 1 3.419120 8.136460 2.685460
15 1 1.589570 0.542120 5.400880
16 1 5.333520 7.028980 5.401110
17 1 2.476420 7.594960 5.405690
18 1 6.220380 1.108100 5.405920
19 1 3.419280 4.837260 5.406300
20 1 7.163240 11.324130 5.406530
21 1 1.589400 12.431610 2.680040
22 1 5.333360 5.944750 2.680270
23 1 2.476260 5.378770 2.684850
24 1 6.220210 11.865630 2.685080
25 2 3.741520 6.487450 5.424030
26 2 7.485470 0.000590 5.424260
27 2 7.485310 12.973140 2.703420
28 2 3.741360 6.486280 2.703190
29 2 0.003250 8.650900 3.349290
30 2 3.747200 2.164040 3.349520
31 2 0.003080 4.322830 0.628450
32 2 3.747030 10.809690 0.628670
33 2 4.851600 8.998150 2.514780
34 2 1.107640 2.511280 2.514550
35 2 1.628920 10.760510 2.514390
36 2 5.372870 4.273650 2.514620
37 2 1.008170 6.177920 2.516050
38 2 4.752120 12.664780 2.516280
39 2 1.107810 10.462440 5.235390
40 2 4.851760 3.975580 5.235620
41 2 1.629080 2.213220 5.235230
42 2 5.373040 8.700080 5.235460
43 2 1.008340 6.795810 5.236890
44 2 4.752290 0.308940 5.237120
45 2 6.154850 6.551130 1.335040
46 2 2.410900 0.064270 1.334810
47 2 2.478980 8.543780 1.341740
48 2 6.222930 2.056910 1.341970
49 2 2.597780 4.360160 1.341970
50 2 6.341730 10.847020 1.342200
51 2 2.411070 12.909460 4.055650
52 2 6.155020 6.422600 4.055880
53 2 2.479140 4.429950 4.062580
54 2 6.223100 10.916810 4.062810
55 2 2.597950 8.613570 4.062820
56 2 6.341900 2.126700 4.063040
