000_000_000_002_004
56 atoms
2 atom types

0.000000 7.646880 xlo xhi
0.000000 13.248120 ylo yhi
0.000000 5.551170 zlo zhi

Masses

1 28.085500
2 14.006700

Atoms

1 1 2.267560 10.405280 1.070550
2 1 6.091000 3.781220 1.071110
3 1 1.327900 3.387000 1.070340
4 1 5.151340 10.011050 1.070890
5 1 0.227900 6.080900 1.071340
6 1 4.051340 12.704960 1.071900
7 1 2.267960 2.842840 3.846140
8 1 6.091400 9.466900 3.846690
9 1 1.328300 9.861120 3.845930
10 1 5.151740 3.237060 3.846480
11 1 0.228300 7.167220 3.846930
12 1 4.051740 0.543160 3.847480
13 1 7.328760 1.681290 2.719140
14 1 3.505320 8.305350 2.718590
15 1 1.616100 0.564420 5.495800
16 1 5.439540 7.188480 5.496350
17 1 2.528500 7.741320 5.494670
18 1 6.351940 1.117260 5.495220
19 1 3.505720 4.942770 5.494170
20 1 7.329160 11.566830 5.494720
21 1 1.615700 12.683690 2.720210
22 1 5.439140 6.059640 2.720760
23 1 2.528100 5.506800 2.719090
24 1 6.351540 12.130860 2.719640
25 2 3.824270 6.623950 5.506610
26 2 0.000820 13.248010 5.506060
27 2 0.000420 0.000110 2.730470
28 2 3.823870 6.624170 2.731020
29 2 0.000510 8.831410 3.490230
30 2 3.823950 2.207350 3.490780
31 2 0.000110 4.416710 0.714640
32 2 3.823550 11.040770 0.715190
33 2 4.960970 9.202410 2.586440
34 2 1.137530 2.578350 2.585890
35 2 1.664910 10.974490 2.588010
36 2 5.488350 4.350440 2.588560
37 2 1.022150 6.316270 2.588980
38 2 4.845590 12.940330 2.589530
39 2 1.137930 10.669770 5.361470
40 2 4.961370 4.045710 5.362030
41 2 1.665310 2.273620 5.363590
42 2 5.488750 8.897680 5.364140
43 2 1.022550 6.931850 5.364560
44 2 4.845990 0.307790 5.365110
45 2 6.261520 6.634030 1.326530
46 2 2.438080 0.009970 1.325970
47 2 2.595210 8.731690 1.325000
48 2 6.418650 2.107630 1.325560
49 2 2.613570 4.506640 1.324340
50 2 6.437010 11.130700 1.324890
51 2 2.438480 13.238150 4.101560
52 2 6.261920 6.614090 4.102110
53 2 2.595610 4.516430 4.100590
54 2 6.419050 11.140490 4.101140
55 2 2.613970 8.741470 4.099920
56 2 6.437410 2.117420 4.100470
