000_000_000_002_005
56 atoms
2 atom types

0.000000 7.728430 xlo xhi
0.000000 13.384350 ylo yhi
0.000000 5.604820 zlo zhi

Masses

1 28.085500
2 14.006700

Atoms

1 1 2.295260 10.510570 1.089330
2 1 6.159480 3.818400 1.089510
3 1 1.341830 3.424570 1.089370
4 1 5.206050 10.116740 1.089550
5 1 0.226860 6.143010 1.090260
6 1 4.091070 12.835180 1.090440
7 1 2.295400 2.873780 3.891740
8 1 6.159610 9.565950 3.891920
9 1 1.341970 9.959780 3.891780
10 1 5.206180 3.267600 3.891960
11 1 0.226990 7.241340 3.892670
12 1 4.091210 0.549170 3.892850
13 1 7.411980 1.697050 2.738250
14 1 3.547770 8.389220 2.738070
15 1 1.628260 0.574330 5.542170
16 1 5.492470 7.266500 5.542350
17 1 2.553390 7.815630 5.540270
18 1 6.417610 1.123460 5.540450
19 1 3.547900 4.995130 5.540480
20 1 7.412120 11.687300 5.540660
21 1 1.628120 12.810020 2.739760
22 1 5.492340 6.117840 2.739940
23 1 2.553260 5.568710 2.737860
24 1 6.417470 12.260880 2.738040
25 2 3.864320 6.692280 5.545310
26 2 7.728540 0.000100 5.545490
27 2 7.728400 13.384240 2.743080
28 2 3.864190 6.692070 2.742900
29 2 0.000360 8.921620 3.556930
30 2 3.864580 2.229450 3.557110
31 2 0.000230 4.462720 0.754520
32 2 3.864440 11.154900 0.754700
33 2 5.018400 9.297980 2.619110
34 2 1.154180 2.605800 2.618930
35 2 1.681310 11.081880 2.619340
36 2 5.545530 4.389710 2.619520
37 2 1.029270 6.385670 2.620450
38 2 4.893490 13.077840 2.620640
39 2 1.154310 10.778540 5.421340
40 2 5.018530 4.086370 5.421520
41 2 1.681440 2.302460 5.421750
42 2 5.545660 8.994630 5.421930
43 2 1.029400 6.998680 5.422860
44 2 4.893620 0.306500 5.423050
45 2 6.318150 6.680590 1.323700
46 2 2.453940 13.372770 1.323520
47 2 2.646310 8.823380 1.322170
48 2 6.510530 2.131200 1.322360
49 2 2.628260 4.570550 1.321560
50 2 6.492480 11.262730 1.321740
51 2 2.454070 0.011580 4.125920
52 2 6.318290 6.703750 4.126110
53 2 2.646450 4.560970 4.124580
54 2 6.510660 11.253140 4.124770
55 2 2.628400 8.813790 4.123970
56 2 6.492610 2.121620 4.124150
