alpha_Si3N4
56 atoms
2 atom types

0.000000 7.807010 xlo xhi
0.000000 13.522280 ylo yhi
0.000000 5.658950 zlo zhi
0.000000 -0.000099 0.000000 xy xz yz

Masses

1 28.060000
2 14.000000

Atoms

1 1 0.000000 2.319440 10.616300 1.107540
2 1 0.000000 6.222940 3.855160 1.107540
3 1 0.000000 1.356900 3.461650 1.107430
4 1 0.000000 5.260400 10.222790 1.107430
5 1 0.000000 0.227240 6.205370 1.107510
6 1 0.000000 4.130740 12.966510 1.107510
7 1 0.000000 6.222920 9.667120 3.937010
8 1 0.000000 2.319420 2.905980 3.937010
9 1 0.000000 5.260380 3.299490 3.936900
10 1 0.000000 1.356880 10.060630 3.936900
11 1 0.000000 0.227220 7.316910 3.936980
12 1 0.000000 4.130720 0.555770 3.936980
13 1 0.000000 5.545980 7.342520 5.585480
14 1 0.000000 1.642480 0.581380 5.585480
15 1 0.000000 6.482200 1.131830 5.585460
16 1 0.000000 2.578700 7.892970 5.585460
17 1 0.000000 7.489150 11.809170 5.585450
18 1 0.000000 3.585650 5.048030 5.585450
19 1 0.000000 1.642510 12.940900 2.756000
20 1 0.000000 5.546010 6.179760 2.756000
21 1 0.000000 2.578720 5.629310 2.755990
22 1 0.000000 6.482220 12.390450 2.755990
23 1 0.000000 7.489180 1.713110 2.755970
24 1 0.000000 3.585680 8.474250 2.755970
25 2 0.000000 -0.000050 0.000000 5.590940
26 2 0.000000 3.903450 6.761130 5.590940
27 2 0.000000 -0.000020 0.000000 2.761460
28 2 0.000000 3.903480 6.761150 2.761460
29 2 0.000000 -0.000030 9.014790 3.630070
30 2 0.000000 3.903490 2.253650 3.630070
31 2 0.000000 -0.000010 4.507490 0.800600
32 2 0.000000 3.903520 11.268630 0.800600
33 2 0.000000 1.167680 10.885440 5.480050
34 2 0.000000 5.071180 4.124300 5.480050
35 2 0.000000 1.699750 2.329590 5.480070
36 2 0.000000 5.603250 9.090730 5.480070
37 2 0.000000 1.035930 7.068220 5.480030
38 2 0.000000 4.939430 0.307080 5.480030
39 2 0.000000 5.071210 9.397980 2.650570
40 2 0.000000 1.167710 2.636840 2.650570
41 2 0.000000 5.603280 4.431550 2.650600
42 2 0.000000 1.699780 11.192690 2.650600
43 2 0.000000 4.939450 13.215200 2.650560
44 2 0.000000 1.035950 6.454060 2.650560
45 2 0.000000 6.376650 6.735610 1.320480
46 2 0.000000 2.473150 13.496750 1.320480
47 2 0.000000 6.592500 2.154610 1.320410
48 2 0.000000 2.689000 8.915750 1.320410
49 2 0.000000 2.644680 4.632170 1.320520
50 2 0.000000 6.548180 11.393310 1.320520
51 2 0.000000 2.473140 0.025530 4.149950
52 2 0.000000 6.376640 6.786670 4.149950
53 2 0.000000 6.592480 11.367670 4.149890
54 2 0.000000 2.688980 4.606530 4.149890
55 2 0.000000 2.644660 8.890110 4.149990
56 2 0.000000 6.548160 2.128970 4.149990
