000_000_000_002_008
56 atoms
2 atom types

0.000000 8.045550 xlo xhi
0.000000 13.934140 ylo yhi
0.000000 5.823990 zlo zhi

Masses

1 28.085500
2 14.006700

Atoms

1 1 2.400890 10.936720 1.154480
2 1 6.423660 3.969660 1.154340
3 1 1.396370 3.578510 1.154330
4 1 5.419150 10.545570 1.154200
5 1 0.225300 6.387650 1.157410
6 1 4.248070 13.354720 1.157270
7 1 2.400790 2.997410 4.066470
8 1 6.423560 9.964480 4.066330
9 1 1.396270 10.355630 4.066330
10 1 5.419050 3.388560 4.066190
11 1 0.225200 7.546480 4.069400
12 1 4.247970 0.579410 4.069270
13 1 7.727690 1.762540 2.822050
14 1 3.704910 8.729610 2.822190
15 1 1.686030 0.606320 5.736440
16 1 5.708800 7.573390 5.736300
17 1 2.654200 8.124450 5.735750
18 1 6.676980 1.157380 5.735620
19 1 3.704810 5.204530 5.734180
20 1 7.727590 12.171600 5.734040
21 1 1.686130 13.327820 2.824440
22 1 5.708900 6.360750 2.824310
23 1 2.654300 5.809680 2.823760
24 1 6.677080 12.776750 2.823620
25 2 4.022540 6.967570 5.736650
26 2 8.045310 0.000500 5.736510
27 2 8.045410 13.933630 2.824520
28 2 4.022640 6.966560 2.824650
29 2 8.045320 9.288770 3.800110
30 2 4.022550 2.321700 3.800250
31 2 8.045420 4.645360 0.888110
32 2 4.022650 11.612430 0.888250
33 2 5.232910 9.691010 2.736760
34 2 1.210140 2.723940 2.736890
35 2 1.753170 11.523960 2.737680
36 2 5.775940 4.556890 2.737540
37 2 1.057670 6.651070 2.741010
38 2 5.080440 13.618140 2.740880
39 2 1.210040 11.210200 5.648890
40 2 5.232810 4.243130 5.648750
41 2 1.753070 2.410170 5.649670
42 2 5.775840 9.377240 5.649530
43 2 1.057570 7.283060 5.653010
44 2 5.080340 0.315990 5.652870
45 2 6.553810 6.896580 1.331780
46 2 2.531030 13.863650 1.331920
47 2 2.820210 9.194490 1.328430
48 2 6.842990 2.227420 1.328290
49 2 2.695810 4.811700 1.328440
50 2 6.718590 11.778770 1.328300
51 2 2.530930 0.070490 4.243910
52 2 6.553710 7.037550 4.243770
53 2 2.820110 4.739640 4.240430
54 2 6.842890 11.706710 4.240290
55 2 2.695710 9.122430 4.240440
56 2 6.718490 2.155360 4.240300
