000_000_000_002_000
56 atoms
2 atom types

0.000000 7.807110 xlo xhi
0.000000 13.523820 ylo yhi
0.000000 5.659200 zlo zhi

Masses

1 28.085500
2 14.006700

Atoms

1 1 2.321190 10.619620 1.107100
2 1 6.224750 3.857710 1.107010
3 1 1.355430 3.462170 1.107750
4 1 5.258980 10.224080 1.107650
5 1 0.227300 6.205880 1.105870
6 1 4.130860 12.967800 1.105780
7 1 2.321130 2.904200 3.936700
8 1 6.224680 9.666110 3.936600
9 1 1.355360 10.061650 3.937340
10 1 5.258910 3.299740 3.937250
11 1 0.227240 7.317940 3.935470
12 1 4.130790 0.556030 3.935380
13 1 7.489290 1.714580 2.759190
14 1 3.585730 8.476490 2.759290
15 1 1.640900 0.582450 5.587070
16 1 5.544450 7.344360 5.586980
17 1 2.578080 7.893180 5.588320
18 1 6.481630 1.131260 5.588230
19 1 3.585660 5.047330 5.588880
20 1 7.489220 11.809240 5.588790
21 1 1.640960 12.941370 2.757470
22 1 5.544520 6.179460 2.757380
23 1 2.578150 5.630650 2.758720
24 1 6.481700 12.392560 2.758630
25 2 3.902710 6.761410 5.591890
26 2 7.806270 13.523320 5.591800
27 2 7.806330 0.000500 2.762200
28 2 3.902780 6.762420 2.762290
29 2 0.000630 9.014270 3.622660
30 2 3.904190 2.252360 3.622560
31 2 0.000700 4.509550 0.793060
32 2 3.904250 11.271470 0.792970
33 2 5.071230 9.397930 2.651570
34 2 1.167670 2.636020 2.651660
35 2 1.699530 11.194250 2.650120
36 2 5.603080 4.432340 2.650030
37 2 1.037200 6.455930 2.648320
38 2 4.940760 13.217840 2.648230
39 2 1.167600 10.887810 5.481260
40 2 5.071160 4.125900 5.481160
41 2 1.699460 2.329580 5.479720
42 2 5.603020 9.091490 5.479630
43 2 1.037130 7.067890 5.477920
44 2 4.940690 0.305980 5.477830
45 2 6.375100 6.732280 1.320000
46 2 2.471540 13.494190 1.320090
47 2 2.692810 8.918820 1.321440
48 2 6.596360 2.156910 1.321350
49 2 2.643260 4.633600 1.322970
50 2 6.546810 11.395510 1.322880
51 2 2.471470 0.029640 4.149690
52 2 6.375030 6.791550 4.149590
53 2 2.692740 4.605000 4.151040
54 2 6.596300 11.366910 4.150950
55 2 2.643190 8.890230 4.152570
56 2 6.546740 2.128310 4.152470
