LAMMPS (16 Mar 2018)
Reading data file ...
  orthogonal box = (0 0 0) to (7.80711 13.5238 5.6592)
  1 by 1 by 1 MPI processor grid
  reading atoms ...
  56 atoms
Neighbor list info ...
  update every 1 steps, delay 10 steps, check yes
  max neighbors/atom: 2000, page size: 100000
  master list distance cutoff = 5
  ghost atom cutoff = 5
  binsize = 2.5, bins = 4 6 3
  1 neighbor lists, perpetual/occasional/extra = 1 0 0
  (1) pair tersoff, perpetual
      attributes: full, newton on
      pair build: full/bin/atomonly
      stencil: full/bin/3d
      bin: standard
Setting up Verlet run ...
  Unit style    : metal
  Current step  : 0
  Time step     : 0.001
Per MPI rank memory allocation (min/avg/max) = 2.703 | 2.703 | 2.703 Mbytes
Step PotEng Temp 
       0    33.499555          0.1 
Loop time of 1e-06 on 1 procs for 0 steps with 56 atoms

100.0% CPU use with 1 MPI tasks x no OpenMP threads

MPI task timing breakdown:
Section |  min time  |  avg time  |  max time  |%varavg| %total
---------------------------------------------------------------
Pair    | 0          | 0          | 0          |   0.0 |  0.00
Neigh   | 0          | 0          | 0          |   0.0 |  0.00
Comm    | 0          | 0          | 0          |   0.0 |  0.00
Output  | 0          | 0          | 0          |   0.0 |  0.00
Modify  | 0          | 0          | 0          |   0.0 |  0.00
Other   |            | 1e-06      |            |       |100.00

Nlocal:    56 ave 56 max 56 min
Histogram: 1 0 0 0 0 0 0 0 0 0
Nghost:    530 ave 530 max 530 min
Histogram: 1 0 0 0 0 0 0 0 0 0
Neighs:    0 ave 0 max 0 min
Histogram: 1 0 0 0 0 0 0 0 0 0
FullNghs:  2696 ave 2696 max 2696 min
Histogram: 1 0 0 0 0 0 0 0 0 0

Total # of neighbors = 2696
Ave neighs/atom = 48.1429
Neighbor list builds = 0
Dangerous builds = 0
Total wall time: 0:00:00
