LAMMPS (22 Aug 2018)
  using 1 OpenMP thread(s) per MPI task
Reading data file ...
  triclinic box = (0 0 0) to (7.80701 13.5223 5.65895) with tilt (0 -9.9e-05 0)
  1 by 1 by 1 MPI processor grid
  reading atoms ...
  56 atoms
Neighbor list info ...
  update every 1 steps, delay 10 steps, check yes
  max neighbors/atom: 2000, page size: 100000
  master list distance cutoff = 4.8
  ghost atom cutoff = 4.8
  binsize = 2.4, bins = 4 6 3
  1 neighbor lists, perpetual/occasional/extra = 1 0 0
  (1) pair tersoff, perpetual
      attributes: full, newton on
      pair build: full/bin/atomonly
      stencil: full/bin/3d
      bin: standard
Setting up Verlet run ...
  Unit style    : metal
  Current step  : 0
  Time step     : 0.001
Per MPI rank memory allocation (min/avg/max) = 2.701 | 2.701 | 2.701 Mbytes
Step PotEng Temp 
       0    311.52518          0.1 
Loop time of 8.10623e-06 on 1 procs for 0 steps with 56 atoms

197.4% CPU use with 1 MPI tasks x 1 OpenMP threads

MPI task timing breakdown:
Section |  min time  |  avg time  |  max time  |%varavg| %total
---------------------------------------------------------------
Pair    | 0          | 0          | 0          |   0.0 |  0.00
Neigh   | 0          | 0          | 0          |   0.0 |  0.00
Comm    | 0          | 0          | 0          |   0.0 |  0.00
Output  | 0          | 0          | 0          |   0.0 |  0.00
Modify  | 0          | 0          | 0          |   0.0 |  0.00
Other   |            | 8.106e-06  |            |       |100.00

Nlocal:    56 ave 56 max 56 min
Histogram: 1 0 0 0 0 0 0 0 0 0
Nghost:    510 ave 510 max 510 min
Histogram: 1 0 0 0 0 0 0 0 0 0
Neighs:    0 ave 0 max 0 min
Histogram: 1 0 0 0 0 0 0 0 0 0
FullNghs:  2264 ave 2264 max 2264 min
Histogram: 1 0 0 0 0 0 0 0 0 0

Total # of neighbors = 2264
Ave neighs/atom = 40.4286
Neighbor list builds = 0
Dangerous builds = 0
Total wall time: 0:00:00
