 # File generated with Atomsk by pkroll on 2020-06-19 15:25:43
 
          56  atoms
           2  atom types
 
      0.00000000       8.58771100  xlo xhi
      0.00000000      14.87450800  ylo yhi
      0.00000000       6.22484500  zlo zhi
      0.00000000       0.00010890       0.00000000  xy xz yz
 
Masses
 
            1   1.00800000              # H
            2   4.00260200              # He
 
Atoms # atomic
 
         1    1        2.55138400      11.67793000       1.21829400
         2    1        6.84523400       4.24067600       1.21829400
         3    1        1.49259000       3.80781500       1.21817300
         4    1        5.78644000      11.24506900       1.21817300
         5    1        0.24996400       6.82590700       1.21826100
         6    1        4.54381400      14.26316100       1.21826100
         7    1        6.84521200      10.63383200       4.33071100
         8    1        2.55136200       3.19657800       4.33071100
         9    1        5.78641800       3.62943900       4.33059000
        10    1        1.49256800      11.06669300       4.33059000
        11    1        0.24994200       8.04860100       4.33067800
        12    1        4.54379200       0.61134700       4.33067800
        13    1        6.10057800       8.07677200       6.14402800
        14    1        1.80672800       0.63951800       6.14402800
        15    1        7.13042000       1.24501300       6.14400600
        16    1        2.83657000       8.68226700       6.14400600
        17    1        8.23806500      12.99008700       6.14399500
        18    1        3.94421500       5.55283300       6.14399500
        19    1        1.80676100      14.23499000       3.03160000
        20    1        6.10061100       6.79773600       3.03160000
        21    1        2.83659200       6.19224100       3.03158900
        22    1        7.13044200      13.62949500       3.03158900
        23    1        8.23809800       1.88442100       3.03156700
        24    1        3.94424800       9.32167500       3.03156700
        25    2       -0.00005500       0.00000000       6.15003400
        26    2        4.29379500       7.43724300       6.15003400
        27    2       -0.00002200       0.00000000       3.03760600
        28    2        4.29382800       7.43726500       3.03760600
        29    2       -0.00003300       9.91626900       3.99307700
        30    2        4.29383900       2.47901500       3.99307700
        31    2       -0.00001100       4.95823900       0.88066000
        32    2        4.29387200      12.39549300       0.88066000
        33    2        1.28444800      11.97398400       6.02805500
        34    2        5.57829800       4.53673000       6.02805500
        35    2        1.86972500       2.56254900       6.02807700
        36    2        6.16357500       9.99980300       6.02807700
        37    2        1.13952300       7.77504200       6.02803300
        38    2        5.43337300       0.33778800       6.02803300
        39    2        5.57833100      10.33777800       2.91562700
        40    2        1.28448100       2.90052400       2.91562700
        41    2        6.16360800       4.87470500       2.91566000
        42    2        1.86975800      12.31195900       2.91566000
        43    2        5.43339500      14.53672000       2.91561600
        44    2        1.13954500       7.09946600       2.91561600
        45    2        7.01431500       7.40917100       1.45252800
        46    2        2.72046500      14.84642500       1.45252800
        47    2        7.25175000       2.37007100       1.45245100
        48    2        2.95790000       9.80732500       1.45245100
        49    2        2.90914800       5.09538700       1.45257200
        50    2        7.20299800      12.53264100       1.45257200
        51    2        2.72045400       0.02808300       4.56494500
        52    2        7.01430400       7.46533700       4.56494500
        53    2        7.25172800      12.50443700       4.56487900
        54    2        2.95787800       5.06718300       4.56487900
        55    2        2.90912600       9.77912100       4.56498900
        56    2        7.20297600       2.34186700       4.56498900
