 # File generated with Atomsk by pkroll on 2020-06-19 15:28:12
 
          56  atoms
           2  atom types
 
      0.00000000       7.96315020  xlo xhi
      0.00000000      13.79272560  ylo yhi
      0.00000000       5.77212900  zlo zhi
      0.00000000       0.00010098       0.00000000  xy xz yz
 
Masses
 
            1   1.00800000              # H
            2   4.00260200              # He
 
Atoms # atomic
 
         1    1        2.36582880      10.82862600       1.12969080
         2    1        6.34739880       3.93226320       1.12969080
         3    1        1.38403800       3.53088300       1.12957860
         4    1        5.36560800      10.42724580       1.12957860
         5    1        0.23178480       6.32947740       1.12966020
         6    1        4.21335480      13.22584020       1.12966020
         7    1        6.34737840       9.86046240       4.01575020
         8    1        2.36580840       2.96409960       4.01575020
         9    1        5.36558760       3.36547980       4.01563800
        10    1        1.38401760      10.26184260       4.01563800
        11    1        0.23176440       7.46324820       4.01571960
        12    1        4.21333440       0.56688540       4.01571960
        13    1        5.65689960       7.48937040       5.69718960
        14    1        1.67532960       0.59300760       5.69718960
        15    1        6.61184400       1.15446660       5.69716920
        16    1        2.63027400       8.05082940       5.69716920
        17    1        7.63893300      12.04535340       5.69715900
        18    1        3.65736300       5.14899060       5.69715900
        19    1        1.67536020      13.19971800       2.81112000
        20    1        5.65693020       6.30335520       2.81112000
        21    1        2.63029440       5.74189620       2.81110980
        22    1        6.61186440      12.63825900       2.81110980
        23    1        7.63896360       1.74737220       2.81108940
        24    1        3.65739360       8.64373500       2.81108940
        25    2       -0.00005100       0.00000000       5.70275880
        26    2        3.98151900       6.89635260       5.70275880
        27    2       -0.00002040       0.00000000       2.81668920
        28    2        3.98154960       6.89637300       2.81668920
        29    2       -0.00003060       9.19508580       3.70267140
        30    2        3.98155980       2.29872300       3.70267140
        31    2       -0.00001020       4.59763980       0.81661200
        32    2        3.98159040      11.49400260       0.81661200
        33    2        1.19103360      11.10314880       5.58965100
        34    2        5.17260360       4.20678600       5.58965100
        35    2        1.73374500       2.37618180       5.58967140
        36    2        5.71531500       9.27254460       5.58967140
        37    2        1.05664860       7.20958440       5.58963060
        38    2        5.03821860       0.31322160       5.58963060
        39    2        5.17263420       9.58593960       2.70358140
        40    2        1.19106420       2.68957680       2.70358140
        41    2        5.71534560       4.52018100       2.70361200
        42    2        1.73377560      11.41654380       2.70361200
        43    2        5.03823900      13.47950400       2.70357120
        44    2        1.05666900       6.58314120       2.70357120
        45    2        6.50418300       6.87032220       1.34688960
        46    2        2.52261300      13.76668500       1.34688960
        47    2        6.72435000       2.19770220       1.34681820
        48    2        2.74278000       9.09406500       1.34681820
        49    2        2.69757360       4.72481340       1.34693040
        50    2        6.67914360      11.62117620       1.34693040
        51    2        2.52260280       0.02604060       4.23294900
        52    2        6.50417280       6.92240340       4.23294900
        53    2        6.72432960      11.59502340       4.23288780
        54    2        2.74275960       4.69866060       4.23288780
        55    2        2.69755320       9.06791220       4.23298980
        56    2        6.67912320       2.17154940       4.23298980
