LAMMPS (16 Mar 2018)
Reading data file ...
  triclinic box = (0 0 0) to (7.65087 13.2518 5.54577) with tilt (0 9.702e-05 0)
  4 by 5 by 2 MPI processor grid
  reading atoms ...
  56 atoms
Neighbor list info ...
  update every 1 steps, delay 10 steps, check yes
  max neighbors/atom: 2000, page size: 100000
  master list distance cutoff = 4.8
  ghost atom cutoff = 4.8
  binsize = 2.4, bins = 4 6 3
  1 neighbor lists, perpetual/occasional/extra = 1 0 0
  (1) pair tersoff, perpetual
      attributes: full, newton on
      pair build: full/bin/atomonly
      stencil: full/bin/3d
      bin: standard
WARNING: Proc sub-domain size < neighbor skin, could lead to lost atoms (../domain.cpp:937)
Setting up Verlet run ...
  Unit style    : metal
  Current step  : 0
  Time step     : 0.001
Per MPI rank memory allocation (min/avg/max) = 2.713 | 2.832 | 2.964 Mbytes
Step PotEng Temp 
       0   -301.88812          0.1 
Loop time of 1.73628e-05 on 40 procs for 0 steps with 56 atoms

10.5% CPU use with 40 MPI tasks x no OpenMP threads

MPI task timing breakdown:
Section |  min time  |  avg time  |  max time  |%varavg| %total
---------------------------------------------------------------
Pair    | 0          | 0          | 0          |   0.0 |  0.00
Neigh   | 0          | 0          | 0          |   0.0 |  0.00
Comm    | 0          | 0          | 0          |   0.0 |  0.00
Output  | 0          | 0          | 0          |   0.0 |  0.00
Modify  | 0          | 0          | 0          |   0.0 |  0.00
Other   |            | 1.736e-05  |            |       |100.00

Nlocal:    1.4 ave 3 max 0 min
Histogram: 8 0 0 13 0 0 14 0 0 5
Nghost:    175.9 ave 185 max 166 min
Histogram: 6 0 6 4 2 0 10 4 5 3
Neighs:    0 ave 0 max 0 min
Histogram: 40 0 0 0 0 0 0 0 0 0
FullNghs:  61.4 ave 136 max 0 min
Histogram: 8 0 4 9 0 0 14 0 0 5

Total # of neighbors = 2456
Ave neighs/atom = 43.8571
Neighbor list builds = 0
Dangerous builds = 0
Total wall time: 0:00:00
