 # Si  N
 
          28  atoms
           2  atom types
 
      0.00000000       6.61676040  xlo xhi
      0.00000000       6.61676040  ylo yhi
      0.00000000       6.61676040  zlo zhi
 
Masses
 
            1   28.08500000             # Si
            2   14.00700000             # N
 
Atoms # atomic
 
         1    1        2.48128515       0.00000000       1.65419010
         2    1        0.82709505       0.00000000       4.96257030
         3    1        4.13547525       3.30838020       1.65419010
         4    1        5.78966535       3.30838020       4.96257030
         5    1        1.65419010       2.48128515       0.00000000
         6    1        4.96257030       0.82709505       0.00000000
         7    1        1.65419010       4.13547525       3.30838020
         8    1        4.96257030       5.78966535       3.30838020
         9    1        0.00000000       1.65419010       2.48128515
        10    1        0.00000000       4.96257030       0.82709505
        11    1        3.30838020       1.65419010       4.13547525
        12    1        3.30838020       4.96257030       5.78966535
        13    2        1.44655616       1.44655616       1.44655616
        14    2        1.86182404       5.17020424       4.75493636
        15    2        5.17020424       4.75493636       1.86182404
        16    2        4.75493636       1.86182404       5.17020424
        17    2        3.10074626       3.10074626       3.10074626
        18    2        0.20763394       3.51601414       6.40912646
        19    2        6.40912646       0.20763394       3.51601414
        20    2        3.51601414       6.40912646       0.20763394
        21    2        4.75493636       4.75493636       4.75493636
        22    2        5.17020424       1.86182404       1.44655616
        23    2        1.86182404       1.44655616       5.17020424
        24    2        1.44655616       5.17020424       1.86182404
        25    2        6.40912646       6.40912646       6.40912646
        26    2        3.51601414       0.20763394       3.10074626
        27    2        3.10074626       3.51601414       0.20763394
        28    2        0.20763394       3.10074626       3.51601414
