 # File generated with Atomsk by pkroll on 2020-06-19 15:24:32
 
          56  atoms
           2  atom types
 
      0.00000000       7.02630900  xlo xhi
      0.00000000      12.17005200  ylo yhi
      0.00000000       5.09305500  zlo zhi
      0.00000000       0.00008910       0.00000000  xy xz yz
 
Masses
 
            1   1.00800000              # H
            2   4.00260200              # He
 
Atoms # atomic
 
         1    1        2.08749600       9.55467000       0.99678600
         2    1        5.60064600       3.46964400       0.99678600
         3    1        1.22121000       3.11548500       0.99668700
         4    1        4.73436000       9.20051100       0.99668700
         5    1        0.20451600       5.58483300       0.99675900
         6    1        3.71766600      11.66985900       0.99675900
         7    1        5.60062800       8.70040800       3.54330900
         8    1        2.08747800       2.61538200       3.54330900
         9    1        4.73434200       2.96954100       3.54321000
        10    1        1.22119200       9.05456700       3.54321000
        11    1        0.20449800       6.58521900       3.54328200
        12    1        3.71764800       0.50019300       3.54328200
        13    1        4.99138200       6.60826800       5.02693200
        14    1        1.47823200       0.52324200       5.02693200
        15    1        5.83398000       1.01864700       5.02691400
        16    1        2.32083000       7.10367300       5.02691400
        17    1        6.74023500      10.62825300       5.02690500
        18    1        3.22708500       4.54322700       5.02690500
        19    1        1.47825900      11.64681000       2.48040000
        20    1        4.99140900       5.56178400       2.48040000
        21    1        2.32084800       5.06637900       2.48039100
        22    1        5.83399800      11.15140500       2.48039100
        23    1        6.74026200       1.54179900       2.48037300
        24    1        3.22711200       7.62682500       2.48037300
        25    2       -0.00004500       0.00000000       5.03184600
        26    2        3.51310500       6.08501700       5.03184600
        27    2       -0.00001800       0.00000000       2.48531400
        28    2        3.51313200       6.08503500       2.48531400
        29    2       -0.00002700       8.11331100       3.26706300
        30    2        3.51314100       2.02828500       3.26706300
        31    2       -0.00000900       4.05674100       0.72054000
        32    2        3.51316800      10.14176700       0.72054000
        33    2        1.05091200       9.79689600       4.93204500
        34    2        4.56406200       3.71187000       4.93204500
        35    2        1.52977500       2.09663100       4.93206300
        36    2        5.04292500       8.18165700       4.93206300
        37    2        0.93233700       6.36139800       4.93202700
        38    2        4.44548700       0.27637200       4.93202700
        39    2        4.56408900       8.45818200       2.38551300
        40    2        1.05093900       2.37315600       2.38551300
        41    2        5.04295200       3.98839500       2.38554000
        42    2        1.52980200      10.07342100       2.38554000
        43    2        4.44550500      11.89368000       2.38550400
        44    2        0.93235500       5.80865400       2.38550400
        45    2        5.73898500       6.06204900       1.18843200
        46    2        2.22583500      12.14707500       1.18843200
        47    2        5.93325000       1.93914900       1.18836900
        48    2        2.42010000       8.02417500       1.18836900
        49    2        2.38021200       4.16895300       1.18846800
        50    2        5.89336200      10.25397900       1.18846800
        51    2        2.22582600       0.02297700       3.73495500
        52    2        5.73897600       6.10800300       3.73495500
        53    2        5.93323200      10.23090300       3.73490100
        54    2        2.42008200       4.14587700       3.73490100
        55    2        2.38019400       8.00109900       3.73499100
        56    2        5.89334400       1.91607300       3.73499100
