 # Si  N
 
          28  atoms
           2  atom types
 
      0.00000000       6.48702000  xlo xhi
      0.00000000       6.48702000  ylo yhi
      0.00000000       6.48702000  zlo zhi
 
Masses
 
            1   28.08500000             # Si
            2   14.00700000             # N
 
Atoms # atomic
 
         1    1        2.43263250       0.00000000       1.62175500
         2    1        0.81087750       0.00000000       4.86526500
         3    1        4.05438750       3.24351000       1.62175500
         4    1        5.67614250       3.24351000       4.86526500
         5    1        1.62175500       2.43263250       0.00000000
         6    1        4.86526500       0.81087750       0.00000000
         7    1        1.62175500       4.05438750       3.24351000
         8    1        4.86526500       5.67614250       3.24351000
         9    1        0.00000000       1.62175500       2.43263250
        10    1        0.00000000       4.86526500       0.81087750
        11    1        3.24351000       1.62175500       4.05438750
        12    1        3.24351000       4.86526500       5.67614250
        13    2        1.41819231       1.41819231       1.41819231
        14    2        1.82531769       5.06882769       4.66170231
        15    2        5.06882769       4.66170231       1.82531769
        16    2        4.66170231       1.82531769       5.06882769
        17    2        3.03994731       3.03994731       3.03994731
        18    2        0.20356269       3.44707269       6.28345731
        19    2        6.28345731       0.20356269       3.44707269
        20    2        3.44707269       6.28345731       0.20356269
        21    2        4.66170231       4.66170231       4.66170231
        22    2        5.06882769       1.82531769       1.41819231
        23    2        1.82531769       1.41819231       5.06882769
        24    2        1.41819231       5.06882769       1.82531769
        25    2        6.28345731       6.28345731       6.28345731
        26    2        3.44707269       0.20356269       3.03994731
        27    2        3.03994731       3.44707269       0.20356269
        28    2        0.20356269       3.03994731       3.44707269
