 # Si3N4.spinel.Fd3m.pos
 
          56  atoms
           2  atom types
 
      0.00000000       7.93447800  xlo xhi
      0.00000000       7.93447800  ylo yhi
      0.00000000       7.93447800  zlo zhi
 
Masses
 
            1   28.08500000             # Si
            2   14.00700000             # N
 
Atoms # atomic
 
         1    1        4.95904875       4.95904875       4.95904875
         2    1        4.95904875       0.99180975       0.99180975
         3    1        0.99180975       0.99180975       4.95904875
         4    1        0.99180975       4.95904875       0.99180975
         5    1        4.95904875       6.94266825       6.94266825
         6    1        4.95904875       2.97542925       2.97542925
         7    1        0.99180975       2.97542925       6.94266825
         8    1        0.99180975       6.94266825       2.97542925
         9    1        6.94266825       4.95904875       6.94266825
        10    1        6.94266825       0.99180975       2.97542925
        11    1        2.97542925       0.99180975       6.94266825
        12    1        2.97542925       4.95904875       2.97542925
        13    1        6.94266825       2.97542925       0.99180975
        14    1        6.94266825       6.94266825       4.95904875
        15    1        2.97542925       6.94266825       0.99180975
        16    1        2.97542925       2.97542925       4.95904875
        17    1        0.00000000       0.00000000       0.00000000
        18    1        0.00000000       3.96723900       3.96723900
        19    1        3.96723900       3.96723900       0.00000000
        20    1        3.96723900       0.00000000       3.96723900
        21    1        1.98361950       1.98361950       1.98361950
        22    1        1.98361950       5.95085850       5.95085850
        23    1        5.95085850       5.95085850       1.98361950
        24    1        5.95085850       1.98361950       5.95085850
        25    2        3.03414439       3.03414439       3.03414439
        26    2        3.03414439       7.00138339       7.00138339
        27    2        7.00138339       7.00138339       3.03414439
        28    2        7.00138339       3.03414439       7.00138339
        29    2        6.88395311       5.01776389       5.01776389
        30    2        6.88395311       1.05052489       1.05052489
        31    2        2.91671411       1.05052489       5.01776389
        32    2        2.91671411       5.01776389       1.05052489
        33    2        5.01776389       6.88395311       5.01776389
        34    2        5.01776389       2.91671411       1.05052489
        35    2        1.05052489       2.91671411       5.01776389
        36    2        1.05052489       6.88395311       1.05052489
        37    2        0.93309461       4.90033361       7.00138339
        38    2        0.93309461       0.93309461       3.03414439
        39    2        4.90033361       0.93309461       7.00138339
        40    2        4.90033361       4.90033361       3.03414439
        41    2        6.88395311       6.88395311       6.88395311
        42    2        6.88395311       2.91671411       2.91671411
        43    2        2.91671411       2.91671411       6.88395311
        44    2        2.91671411       6.88395311       2.91671411
        45    2        3.03414439       4.90033361       4.90033361
        46    2        3.03414439       0.93309461       0.93309461
        47    2        7.00138339       0.93309461       4.90033361
        48    2        7.00138339       4.90033361       0.93309461
        49    2        4.90033361       3.03414439       4.90033361
        50    2        4.90033361       7.00138339       0.93309461
        51    2        0.93309461       7.00138339       4.90033361
        52    2        0.93309461       3.03414439       0.93309461
        53    2        1.05052489       5.01776389       2.91671411
        54    2        1.05052489       1.05052489       6.88395311
        55    2        5.01776389       1.05052489       2.91671411
        56    2        5.01776389       5.01776389       6.88395311
