 # Si3N4.spinel.Fd3m.pos
 
          56  atoms
           2  atom types
 
      0.00000000       7.62332200  xlo xhi
      0.00000000       7.62332200  ylo yhi
      0.00000000       7.62332200  zlo zhi
 
Masses
 
            1   28.08500000             # Si
            2   14.00700000             # N
 
Atoms # atomic
 
         1    1        4.76457625       4.76457625       4.76457625
         2    1        4.76457625       0.95291525       0.95291525
         3    1        0.95291525       0.95291525       4.76457625
         4    1        0.95291525       4.76457625       0.95291525
         5    1        4.76457625       6.67040675       6.67040675
         6    1        4.76457625       2.85874575       2.85874575
         7    1        0.95291525       2.85874575       6.67040675
         8    1        0.95291525       6.67040675       2.85874575
         9    1        6.67040675       4.76457625       6.67040675
        10    1        6.67040675       0.95291525       2.85874575
        11    1        2.85874575       0.95291525       6.67040675
        12    1        2.85874575       4.76457625       2.85874575
        13    1        6.67040675       2.85874575       0.95291525
        14    1        6.67040675       6.67040675       4.76457625
        15    1        2.85874575       6.67040675       0.95291525
        16    1        2.85874575       2.85874575       4.76457625
        17    1        0.00000000       0.00000000       0.00000000
        18    1        0.00000000       3.81166100       3.81166100
        19    1        3.81166100       3.81166100       0.00000000
        20    1        3.81166100       0.00000000       3.81166100
        21    1        1.90583050       1.90583050       1.90583050
        22    1        1.90583050       5.71749150       5.71749150
        23    1        5.71749150       5.71749150       1.90583050
        24    1        5.71749150       1.90583050       5.71749150
        25    2        2.91515833       2.91515833       2.91515833
        26    2        2.91515833       6.72681933       6.72681933
        27    2        6.72681933       6.72681933       2.91515833
        28    2        6.72681933       2.91515833       6.72681933
        29    2        6.61399417       4.82098883       4.82098883
        30    2        6.61399417       1.00932783       1.00932783
        31    2        2.80233317       1.00932783       4.82098883
        32    2        2.80233317       4.82098883       1.00932783
        33    2        4.82098883       6.61399417       4.82098883
        34    2        4.82098883       2.80233317       1.00932783
        35    2        1.00932783       2.80233317       4.82098883
        36    2        1.00932783       6.61399417       1.00932783
        37    2        0.89650267       4.70816367       6.72681933
        38    2        0.89650267       0.89650267       2.91515833
        39    2        4.70816367       0.89650267       6.72681933
        40    2        4.70816367       4.70816367       2.91515833
        41    2        6.61399417       6.61399417       6.61399417
        42    2        6.61399417       2.80233317       2.80233317
        43    2        2.80233317       2.80233317       6.61399417
        44    2        2.80233317       6.61399417       2.80233317
        45    2        2.91515833       4.70816367       4.70816367
        46    2        2.91515833       0.89650267       0.89650267
        47    2        6.72681933       0.89650267       4.70816367
        48    2        6.72681933       4.70816367       0.89650267
        49    2        4.70816367       2.91515833       4.70816367
        50    2        4.70816367       6.72681933       0.89650267
        51    2        0.89650267       6.72681933       4.70816367
        52    2        0.89650267       2.91515833       0.89650267
        53    2        1.00932783       4.82098883       2.80233317
        54    2        1.00932783       1.00932783       6.61399417
        55    2        4.82098883       1.00932783       2.80233317
        56    2        4.82098883       4.82098883       6.61399417
