 # Si  N
 
           7  atoms
           2  atom types
 
      0.00000000       4.21135560  xlo xhi
      0.00000000       4.21135560  ylo yhi
      0.00000000       4.21135560  zlo zhi
 
Masses
 
            1   28.08500000             # Si
            2   14.00700000             # N
 
Atoms # atomic
 
         1    1        0.00000000       2.10567780       2.10567780
         2    1        2.10567780       0.00000000       2.10567780
         3    1        2.10567780       2.10567780       0.00000000
         4    2        3.11425535       3.11425535       3.11425535
         5    2        1.09710025       1.09710025       3.11425535
         6    2        1.09710025       3.11425535       1.09710025
         7    2        3.11425535       1.09710025       1.09710025
