 # Si  N
 
          28  atoms
           2  atom types
 
      0.00000000       6.35727960  xlo xhi
      0.00000000       6.35727960  ylo yhi
      0.00000000       6.35727960  zlo zhi
 
Masses
 
            1   28.08500000             # Si
            2   14.00700000             # N
 
Atoms # atomic
 
         1    1        2.38397985       0.00000000       1.58931990
         2    1        0.79465995       0.00000000       4.76795970
         3    1        3.97329975       3.17863980       1.58931990
         4    1        5.56261965       3.17863980       4.76795970
         5    1        1.58931990       2.38397985       0.00000000
         6    1        4.76795970       0.79465995       0.00000000
         7    1        1.58931990       3.97329975       3.17863980
         8    1        4.76795970       5.56261965       3.17863980
         9    1        0.00000000       1.58931990       2.38397985
        10    1        0.00000000       4.76795970       0.79465995
        11    1        3.17863980       1.58931990       3.97329975
        12    1        3.17863980       4.76795970       5.56261965
        13    2        1.38982847       1.38982847       1.38982847
        14    2        1.78881133       4.96745113       4.56846827
        15    2        4.96745113       4.56846827       1.78881133
        16    2        4.56846827       1.78881133       4.96745113
        17    2        2.97914837       2.97914837       2.97914837
        18    2        0.19949143       3.37813123       6.15778817
        19    2        6.15778817       0.19949143       3.37813123
        20    2        3.37813123       6.15778817       0.19949143
        21    2        4.56846827       4.56846827       4.56846827
        22    2        4.96745113       1.78881133       1.38982847
        23    2        1.78881133       1.38982847       4.96745113
        24    2        1.38982847       4.96745113       1.78881133
        25    2        6.15778817       6.15778817       6.15778817
        26    2        3.37813123       0.19949143       2.97914837
        27    2        2.97914837       3.37813123       0.19949143
        28    2        0.19949143       2.97914837       3.37813123
