 # File generated with Atomsk by pkroll on 2020-06-19 15:28:29
 
          56  atoms
           2  atom types
 
      0.00000000       7.65086980  xlo xhi
      0.00000000      13.25183440  ylo yhi
      0.00000000       5.54577100  zlo zhi
      0.00000000       0.00009702       0.00000000  xy xz yz
 
Masses
 
            1   1.00800000              # H
            2   4.00260200              # He
 
Atoms # atomic
 
         1    1        2.27305120      10.40397400       1.08538920
         2    1        6.09848120       3.77805680       1.08538920
         3    1        1.32976200       3.39241700       1.08528140
         4    1        5.15519200      10.01833420       1.08528140
         5    1        0.22269520       6.08126260       1.08535980
         6    1        4.04812520      12.70717980       1.08535980
         7    1        6.09846160       9.47377760       3.85826980
         8    1        2.27303160       2.84786040       3.85826980
         9    1        5.15517240       3.23350020       3.85816200
        10    1        1.32974240       9.85941740       3.85816200
        11    1        0.22267560       7.17057180       3.85824040
        12    1        4.04810560       0.54465460       3.85824040
        13    1        5.43506040       7.19566960       5.47377040
        14    1        1.60963040       0.56975240       5.47377040
        15    1        6.35255600       1.10919340       5.47375080
        16    1        2.52712600       7.73511060       5.47375080
        17    1        7.33936700      11.57298660       5.47374100
        18    1        3.51393700       4.94706940       5.47374100
        19    1        1.60965980      12.68208200       2.70088000
        20    1        5.43508980       6.05616480       2.70088000
        21    1        2.52714560       5.51672380       2.70087020
        22    1        6.35257560      12.14264100       2.70087020
        23    1        7.33939640       1.67884780       2.70085060
        24    1        3.51396640       8.30476500       2.70085060
        25    2       -0.00004900       0.00000000       5.47912120
        26    2        3.82538100       6.62590740       5.47912120
        27    2       -0.00001960       0.00000000       2.70623080
        28    2        3.82541040       6.62592700       2.70623080
        29    2       -0.00002940       8.83449420       3.55746860
        30    2        3.82542020       2.20857700       3.55746860
        31    2       -0.00000980       4.41734020       0.78458800
        32    2        3.82544960      11.04325740       0.78458800
        33    2        1.14432640      10.66773120       5.37044900
        34    2        4.96975640       4.04181400       5.37044900
        35    2        1.66575500       2.28299820       5.37046860
        36    2        5.49118500       8.90891540       5.37046860
        37    2        1.01521140       6.92685560       5.37042940
        38    2        4.84064140       0.30093840       5.37042940
        39    2        4.96978580       9.21002040       2.59755860
        40    2        1.14435580       2.58410320       2.59755860
        41    2        5.49121440       4.34291900       2.59758800
        42    2        1.66578440      10.96883620       2.59758800
        43    2        4.84066100      12.95089600       2.59754880
        44    2        1.01523100       6.32497880       2.59754880
        45    2        6.24911700       6.60089780       1.29407040
        46    2        2.42368700      13.22681500       1.29407040
        47    2        6.46065000       2.11151780       1.29400180
        48    2        2.63522000       8.73743500       1.29400180
        49    2        2.59178640       4.53952660       1.29410960
        50    2        6.41721640      11.16544380       1.29410960
        51    2        2.42367720       0.02501940       4.06695100
        52    2        6.24910720       6.65093660       4.06695100
        53    2        6.46063040      11.14031660       4.06689220
        54    2        2.63520040       4.51439940       4.06689220
        55    2        2.59176680       8.71230780       4.06699020
        56    2        6.41719680       2.08639060       4.06699020
