 # Si3N4.spinel.Fd3m.pos
 
          56  atoms
           2  atom types
 
      0.00000000       7.77890000  xlo xhi
      0.00000000       7.77890000  ylo yhi
      0.00000000       7.77890000  zlo zhi
 
Masses
 
            1   28.08500000             # Si
            2   14.00700000             # N
 
Atoms # atomic
 
         1    1        4.86181250       4.86181250       4.86181250
         2    1        4.86181250       0.97236250       0.97236250
         3    1        0.97236250       0.97236250       4.86181250
         4    1        0.97236250       4.86181250       0.97236250
         5    1        4.86181250       6.80653750       6.80653750
         6    1        4.86181250       2.91708750       2.91708750
         7    1        0.97236250       2.91708750       6.80653750
         8    1        0.97236250       6.80653750       2.91708750
         9    1        6.80653750       4.86181250       6.80653750
        10    1        6.80653750       0.97236250       2.91708750
        11    1        2.91708750       0.97236250       6.80653750
        12    1        2.91708750       4.86181250       2.91708750
        13    1        6.80653750       2.91708750       0.97236250
        14    1        6.80653750       6.80653750       4.86181250
        15    1        2.91708750       6.80653750       0.97236250
        16    1        2.91708750       2.91708750       4.86181250
        17    1        0.00000000       0.00000000       0.00000000
        18    1        0.00000000       3.88945000       3.88945000
        19    1        3.88945000       3.88945000       0.00000000
        20    1        3.88945000       0.00000000       3.88945000
        21    1        1.94472500       1.94472500       1.94472500
        22    1        1.94472500       5.83417500       5.83417500
        23    1        5.83417500       5.83417500       1.94472500
        24    1        5.83417500       1.94472500       5.83417500
        25    2        2.97465136       2.97465136       2.97465136
        26    2        2.97465136       6.86410136       6.86410136
        27    2        6.86410136       6.86410136       2.97465136
        28    2        6.86410136       2.97465136       6.86410136
        29    2        6.74897364       4.91937636       4.91937636
        30    2        6.74897364       1.02992636       1.02992636
        31    2        2.85952364       1.02992636       4.91937636
        32    2        2.85952364       4.91937636       1.02992636
        33    2        4.91937636       6.74897364       4.91937636
        34    2        4.91937636       2.85952364       1.02992636
        35    2        1.02992636       2.85952364       4.91937636
        36    2        1.02992636       6.74897364       1.02992636
        37    2        0.91479864       4.80424864       6.86410136
        38    2        0.91479864       0.91479864       2.97465136
        39    2        4.80424864       0.91479864       6.86410136
        40    2        4.80424864       4.80424864       2.97465136
        41    2        6.74897364       6.74897364       6.74897364
        42    2        6.74897364       2.85952364       2.85952364
        43    2        2.85952364       2.85952364       6.74897364
        44    2        2.85952364       6.74897364       2.85952364
        45    2        2.97465136       4.80424864       4.80424864
        46    2        2.97465136       0.91479864       0.91479864
        47    2        6.86410136       0.91479864       4.80424864
        48    2        6.86410136       4.80424864       0.91479864
        49    2        4.80424864       2.97465136       4.80424864
        50    2        4.80424864       6.86410136       0.91479864
        51    2        0.91479864       6.86410136       4.80424864
        52    2        0.91479864       2.97465136       0.91479864
        53    2        1.02992636       4.91937636       2.85952364
        54    2        1.02992636       1.02992636       6.74897364
        55    2        4.91937636       1.02992636       2.85952364
        56    2        4.91937636       4.91937636       6.74897364
