 # Si  N
 
           7  atoms
           2  atom types
 
      0.00000000       4.04620440  xlo xhi
      0.00000000       4.04620440  ylo yhi
      0.00000000       4.04620440  zlo zhi
 
Masses
 
            1   28.08500000             # Si
            2   14.00700000             # N
 
Atoms # atomic
 
         1    1        0.00000000       2.02310220       2.02310220
         2    1        2.02310220       0.00000000       2.02310220
         3    1        2.02310220       2.02310220       0.00000000
         4    2        2.99212769       2.99212769       2.99212769
         5    2        1.05407671       1.05407671       2.99212769
         6    2        1.05407671       2.99212769       1.05407671
         7    2        2.99212769       1.05407671       1.05407671
