 # Si  N
 
           7  atoms
           2  atom types
 
      0.00000000       4.12878000  xlo xhi
      0.00000000       4.12878000  ylo yhi
      0.00000000       4.12878000  zlo zhi
 
Masses
 
            1   28.08500000             # Si
            2   14.00700000             # N
 
Atoms # atomic
 
         1    1        0.00000000       2.06439000       2.06439000
         2    1        2.06439000       0.00000000       2.06439000
         3    1        2.06439000       2.06439000       0.00000000
         4    2        3.05319152       3.05319152       3.05319152
         5    2        1.07558848       1.07558848       3.05319152
         6    2        1.07558848       3.05319152       1.07558848
         7    2        3.05319152       1.07558848       1.07558848
